!AWR Design Environment (3650) Fri Oct 20 16:01:34 2017
!
!freq-unit  param-type  data-format  keyword  impedance-ohms
# MHz           S          MA           R         50
!-----------------------------------------------------------------------------
!Freq             MagS11           AngS11           MagS21           AngS21           MagS12           AngS12           MagS22           AngS22
 1                0.00719541941    57.9665057       0.996202117     -0.350829203      0.996202117     -0.350829203      0.00719541941    57.9665058      
 1.01             0.00724675727    58.2008465       0.996200413     -0.354234184      0.996200413     -0.354234184      0.00724675724    58.2008462      
 1.0201           0.00729871859    58.4340456       0.996198678     -0.357672168      0.996198678     -0.357672168      0.00729871859    58.4340457      
 1.030301         0.00735131329    58.6660392       0.996196921     -0.361143472      0.996196921     -0.361143472      0.00735131328    58.666039       
 1.04060401       0.00740454453    58.8968484       0.996195135     -0.364648419      0.996195135     -0.364648419      0.00740454452    58.8968482      
 1.05101005       0.00745841704    59.1264758       0.996193317     -0.368187336      0.996193317     -0.368187336      0.00745841707    59.1264762      
 1.06152015       0.00751294007    59.3548683       0.996191475     -0.371760548      0.996191475     -0.371760548      0.00751294011    59.3548688      
 1.07213535       0.00756811878    59.582025        0.996189605     -0.375368389      0.996189605     -0.375368389      0.0075681188     59.5820252      
 1.08285671       0.00762395737    59.8079578       0.996187704     -0.379011193      0.996187704     -0.379011193      0.00762395741    59.8079582      
 1.09368527       0.00768046422    60.0326272       0.996185776     -0.382689299      0.996185776     -0.382689299      0.00768046422    60.0326273      
 1.10462213       0.00773764254    60.2560596       0.996183816     -0.386403048      0.996183816     -0.386403048      0.00773764256    60.2560599      
 1.11566835       0.00779550113    60.4782119       0.996181827     -0.390152784      0.996181827     -0.390152784      0.00779550114    60.478212       
 1.12682503       0.00785404373    60.699106        0.996179804     -0.393938856      0.996179804     -0.393938856      0.00785404376    60.6991064      
 1.13809328       0.00791327925    60.9186994       0.996177753     -0.397761614      0.996177753     -0.397761614      0.00791327926    60.9186995      
 1.14947421       0.00797321217    61.1370061       0.996175669     -0.401621414      0.996175669     -0.401621414      0.00797321218    61.1370062      
 1.16096896       0.00803384814    61.3540272       0.996173551     -0.405518614      0.996173551     -0.405518614      0.00803384817    61.3540275      
 1.17257864       0.00809519554    61.5697294       0.996171401     -0.409453575      0.996171401     -0.409453575      0.00809519557    61.5697297      
 1.18430443       0.008157259      61.7841283       0.996169217     -0.413426662      0.996169217     -0.413426662      0.00815725906    61.7841289      
 1.19614748       0.0082200487     61.9971702       0.996167004     -0.417438242      0.996167004     -0.417438242      0.00822004867    61.9971699      
 1.20810895       0.00828356507    62.2089255       0.99616475      -0.421488691      0.99616475      -0.421488691      0.00828356509    62.2089257      
 1.22019004       0.00834781948    62.4193275       0.996162464     -0.425578381      0.996162464     -0.425578381      0.00834781948    62.4193275      
 1.23239194       0.00841281569    62.628407        0.996160139     -0.429707695      0.996160139     -0.429707695      0.00841281572    62.6284073      
 1.24471586       0.00847856367    62.8361164       0.996157783     -0.433877011      0.996157783     -0.433877011      0.00847856366    62.8361163      
 1.25716302       0.00854506663    63.0424957       0.996155386     -0.43808672       0.996155386     -0.43808672       0.00854506664    63.0424958      
 1.26973465       0.0086123339     63.2475079       0.996152954     -0.44233721       0.996152954     -0.44233721       0.00861233389    63.2475078      
 1.282432         0.00868037088    63.4511667       0.996150483     -0.446628876      0.996150483     -0.446628876      0.00868037087    63.4511667      
 1.29525631       0.00874918458    63.6534668       0.996147973     -0.450962116      0.996147973     -0.450962116      0.0087491846     63.653467       
 1.30820888       0.00881878254    63.8543971       0.996145423     -0.455337331      0.996145423     -0.455337331      0.00881878257    63.8543974      
 1.32129097       0.0088891725     64.053945        0.996142836     -0.459754927      0.996142836     -0.459754927      0.00888917251    64.0539451      
 1.33450388       0.00896036107    64.2521132       0.996140209     -0.464215312      0.996140209     -0.464215312      0.00896036104    64.2521129      
 1.34784892       0.0090323535     64.448923        0.996137538     -0.468718903      0.996137538     -0.468718903      0.0090323535     64.448923       
 1.3613274        0.00910515914    64.6443443       0.996134825     -0.473266115      0.996134825     -0.473266115      0.00910515915    64.6443444      
 1.37494068       0.00917878521    64.8383757       0.996132072     -0.477857369      0.996132072     -0.477857369      0.0091787852     64.8383756      
 1.38869009       0.00925323706    65.0310402       0.996129272     -0.482493092      0.996129272     -0.482493092      0.00925323711    65.0310405      
 1.40257699       0.0093285254     65.2222938       0.996126433     -0.487173711      0.996126433     -0.487173711      0.00932852541    65.2222939      
 1.41660276       0.00940465564    65.4121611       0.996123549     -0.491899662      0.996123549     -0.491899662      0.00940465563    65.412161       
 1.43076878       0.00948163527    65.6006415       0.996120618     -0.496671382      0.996120618     -0.496671382      0.00948163525    65.6006415      
 1.44507647       0.00955947194    65.7877332       0.996117641     -0.501489314      0.996117641     -0.501489314      0.00955947193    65.7877332      
 1.45952724       0.00963817354    65.9734327       0.996114618     -0.506353904      0.996114618     -0.506353904      0.00963817355    65.9734328      
 1.47412251       0.00971774727    66.1577461       0.996111545     -0.511265602      0.996111545     -0.511265602      0.00971774734    66.1577465      
 1.48886373       0.00979820361    66.3406393       0.996108429     -0.51622486       0.996108429     -0.51622486       0.0097982036     66.3406393      
 1.50375237       0.00987954676    66.5221588       0.996105261     -0.521232143      0.996105261     -0.521232143      0.00987954678    66.522159       
 1.51878989       0.00996178672    66.7022788       0.996102043     -0.526287912      0.996102043     -0.526287912      0.00996178676    66.702279       
 1.53397779       0.0100449315     66.8809996       0.996098776     -0.531392634      0.996098776     -0.531392634      0.0100449315     66.8809997      
 1.54931757       0.010128989      67.0583248       0.996095458     -0.536546782      0.996095458     -0.536546782      0.010128989      67.0583248      
 1.56481075       0.0102139669     67.2342613       0.996092087     -0.541750835      0.996092087     -0.541750835      0.0102139669     67.2342613      
 1.58045885       0.010299873      67.4088152       0.996088662     -0.547005275      0.996088662     -0.547005275      0.010299873      67.4088154      
 1.59626344       0.0103867182     67.5819558       0.996085186     -0.552310584      0.996085186     -0.552310584      0.0103867182     67.5819557      
 1.61222608       0.0104745076     67.7537259       0.996081653     -0.557667258      0.996081653     -0.557667258      0.0104745076     67.753726       
 1.62834834       0.0105632516     67.9241025       0.996078064     -0.563075791      0.996078064     -0.563075791      0.0105632516     67.9241027      
 1.64463182       0.0106529578     68.0931005       0.996074418     -0.568536684      0.996074418     -0.568536684      0.0106529579     68.0931009      
 1.66107814       0.0107436376     68.2606857       0.99607072      -0.574050438      0.99607072      -0.574050438      0.0107436376     68.2606856      
 1.67768892       0.0108352948     68.4269223       0.996066957     -0.579617571      0.996066957     -0.579617571      0.010835295      68.4269228      
 1.69446581       0.0109279436     68.5917461       0.996063141     -0.58523859       0.996063141     -0.58523859       0.0109279437     68.5917461      
 1.71141047       0.0110215882     68.7552175       0.99605926      -0.590914022      0.99605926      -0.590914022      0.0110215883     68.7552179      
 1.72852457       0.0111162419     68.9172851       0.996055323     -0.596644385      0.996055323     -0.596644385      0.0111162419     68.9172851      
 1.74580982       0.0112119094     69.0780059       0.996051319     -0.602430217      0.996051319     -0.602430217      0.0112119095     69.0780062      
 1.76326792       0.0113086036     69.2373357       0.996047256     -0.608272045      0.996047256     -0.608272045      0.0113086036     69.2373356      
 1.7809006        0.0114063312     69.3953105       0.996043127     -0.614170415      0.996043127     -0.614170415      0.0114063312     69.3953106      
 1.7987096        0.0115051024     69.5519204       0.996038932     -0.620125871      0.996038932     -0.620125871      0.0115051024     69.5519205      
 1.8166967        0.0116049264     69.7071716       0.996034671     -0.626138962      0.996034671     -0.626138962      0.0116049265     69.7071718      
 1.83486367       0.0117058136     69.8610572       0.996030345     -0.632210245      0.996030345     -0.632210245      0.0117058137     69.8610573      
 1.8532123        0.0118077727     70.0135928       0.996025949     -0.638340281      0.996025949     -0.638340281      0.0118077727     70.0135929      
 1.87174443       0.0119108141     70.164771        0.996021486     -0.644529636      0.996021486     -0.644529636      0.011910814      70.1647709      
 1.89046187       0.0120149458     70.3146176       0.996016949     -0.650778884      0.996016949     -0.650778884      0.0120149459     70.3146178      
 1.90936649       0.0121201801     70.4631088       0.996012343     -0.6570886        0.996012343     -0.6570886        0.0121201801     70.4631089      
 1.92846015       0.0122265257     70.6102618       0.996007665     -0.663459368      0.996007665     -0.663459368      0.0122265257     70.6102617      
 1.94774475       0.0123339916     70.7560949       0.996002909     -0.669891779      0.996002909     -0.669891779      0.0123339917     70.7560951      
 1.9672222        0.01244259       70.900587        0.995998081     -0.676386423      0.995998081     -0.676386423      0.0124425901     70.9005872      
 1.98689442       0.0125523308     71.0437468       0.995993178     -0.6829439        0.995993178     -0.6829439        0.0125523308     71.0437467      
 2.00676337       0.0126632231     71.1855942       0.995988195     -0.68956482       0.995988195     -0.68956482       0.0126632231     71.1855942      
 2.026831         0.0127752779     71.3261278       0.995983133     -0.696249792      0.995983133     -0.696249792      0.0127752779     71.3261279      
 2.04709931       0.0128885063     71.4653432       0.995977993     -0.702999432      0.995977993     -0.702999432      0.0128885063     71.4653432      
 2.06757031       0.0130029185     71.6032518       0.995972771     -0.709814364      0.995972771     -0.709814364      0.0130029185     71.6032518      
 2.08824601       0.0131185251     71.7398617       0.995967466     -0.716695218      0.995967466     -0.716695218      0.0131185251     71.7398616      
 2.10912847       0.0132353372     71.8751725       0.995962077     -0.723642629      0.995962077     -0.723642629      0.0132353372     71.8751725      
 2.13021975       0.0133533659     72.0091904       0.995956602     -0.730657237      0.995956602     -0.730657237      0.0133533658     72.0091904      
 2.15152195       0.013472622      72.1419204       0.995951042     -0.73773969       0.995951042     -0.73773969       0.013472622      72.1419204      
 2.17303717       0.0135931164     72.2733733       0.995945392     -0.744890643      0.995945392     -0.744890643      0.0135931164     72.2733733      
 2.19476754       0.0137148616     72.4035387       0.995939655     -0.752110752      0.995939655     -0.752110752      0.0137148615     72.4035385      
 2.21671522       0.0138378667     72.53245         0.995933823     -0.759400689      0.995933823     -0.759400689      0.0138378667     72.5324501      
 2.23888237       0.013962146      72.6600774       0.995927902     -0.766761119      0.995927902     -0.766761119      0.013962146      72.6600773      
 2.26127119       0.0140877093     72.7864504       0.995921887     -0.774192726      0.995921887     -0.774192726      0.0140877092     72.7864503      
 2.2838839        0.0142145681     72.9115747       0.995915774     -0.781696195      0.995915774     -0.781696195      0.0142145682     72.9115747      
 2.30672274       0.014342735      73.0354486       0.995909564     -0.789272217      0.995909564     -0.789272217      0.0143427351     73.0354488      
 2.32978997       0.0144722227     73.1580686       0.995903258     -0.796921488      0.995903258     -0.796921488      0.0144722227     73.1580687      
 2.35308787       0.0146030424     73.2794489       0.995896852     -0.804644715      0.995896852     -0.804644715      0.0146030424     73.2794489      
 2.37661875       0.0147352059     73.3996022       0.995890342     -0.812442612      0.995890342     -0.812442612      0.0147352059     73.3996023      
 2.40038494       0.0148687258     73.5185286       0.99588373      -0.820315895      0.99588373      -0.820315895      0.0148687258     73.5185287      
 2.42438879       0.0150036146     73.6362332       0.995877012     -0.82826529       0.995877012     -0.82826529       0.0150036147     73.6362334      
 2.44863267       0.0151398856     73.7527146       0.995870189     -0.836291529      0.995870189     -0.836291529      0.0151398856     73.7527147      
 2.473119         0.0152775505     73.8679878       0.995863257     -0.844395351      0.995863257     -0.844395351      0.0152775505     73.8679878      
 2.49785019       0.015416622      73.9820602       0.995856214     -0.852577505      0.995856214     -0.852577505      0.0154166221     73.9820602      
 2.52282869       0.015557113      74.0949389       0.995849057     -0.860838743      0.995849057     -0.860838743      0.0155571131     74.0949391      
 2.54805698       0.0156990378     74.2066141       0.995841789     -0.869179823      0.995841789     -0.869179823      0.0156990378     74.2066142      
 2.57353755       0.0158424082     74.3171072       0.995834405     -0.877601516      0.995834405     -0.877601516      0.0158424083     74.3171073      
 2.59927293       0.0159872378     74.4264222       0.995826901     -0.886104597      0.995826901     -0.886104597      0.0159872379     74.4264224      
 2.62526565       0.0161335409     74.5345528       0.995819281     -0.894689846      0.995819281     -0.894689846      0.0161335409     74.5345528      
 2.65151831       0.01628133       74.6415174       0.995811539     -0.903358056      0.995811539     -0.903358056      0.01628133       74.6415174      
 2.67803349       0.0164306184     74.7473277       0.99580367      -0.912110025      0.99580367      -0.912110025      0.0164306185     74.7473278      
 2.70481383       0.0165814215     74.8519705       0.995795679     -0.920946554      0.995795679     -0.920946554      0.0165814215     74.8519705      
 2.73186197       0.0167337515     74.9554707       0.995787558     -0.92986846       0.995787558     -0.92986846       0.0167337517     74.9554709      
 2.75918059       0.0168876245     75.0578142       0.995779311     -0.938876559      0.995779311     -0.938876559      0.0168876245     75.0578142      
 2.78677239       0.017043053      75.159024        0.99577093      -0.947971684      0.99577093      -0.947971684      0.017043053      75.1590241      
 2.81464012       0.0172000521     75.2590987       0.995762416     -0.957154668      0.995762416     -0.957154668      0.0172000521     75.2590987      
 2.84278652       0.0173586365     75.3580412       0.995753767     -0.966426354      0.995753767     -0.966426354      0.0173586364     75.3580412      
 2.87121438       0.0175188201     75.4558673       0.995744978     -0.975787598      0.995744978     -0.975787598      0.01751882       75.4558673      
 2.89992653       0.0176806179     75.5525782       0.995736049     -0.985239259      0.995736049     -0.985239259      0.0176806179     75.5525782      
 2.92892579       0.0178440447     75.6481835       0.995726976     -0.994782205      0.995726976     -0.994782205      0.0178440448     75.6481837      
 2.95821505       0.0180091164     75.7426788       0.995717759     -1.00441731       0.995717759     -1.00441731       0.0180091165     75.742679       
 2.9877972        0.018175848      75.8360726       0.995708396     -1.01414546       0.995708396     -1.01414546       0.018175848      75.8360726      
 3.01767517       0.0183442543     75.9283766       0.995698883     -1.02396755       0.995698883     -1.02396755       0.0183442543     75.9283766      
 3.04785192       0.0185143508     76.0195977       0.995689216     -1.03388448       0.995689216     -1.03388448       0.0185143509     76.0195977      
 3.07833044       0.0186861542     76.1097295       0.995679397     -1.04389716       0.995679397     -1.04389716       0.0186861541     76.1097294      
 3.10911375       0.0188596781     76.1988025       0.995669416     -1.05400651       0.995669416     -1.05400651       0.0188596783     76.1988027      
 3.14020489       0.0190349416     76.2867885       0.995659281     -1.06421345       0.995659281     -1.06421345       0.0190349416     76.2867884      
 3.17160693       0.0192119579     76.3737247       0.995648979     -1.07451894       0.995648979     -1.07451894       0.019211958      76.3737248      
 3.203323         0.019390745      76.4595985       0.995638514     -1.08492389       0.995638514     -1.08492389       0.019390745      76.4595986      
 3.23535623       0.0195713188     76.5444211       0.99562788      -1.09542928       0.99562788      -1.09542928       0.0195713188     76.5444212      
 3.2677098        0.0197536958     76.6281989       0.995617076     -1.10603607       0.995617076     -1.10603607       0.0197536959     76.628199       
 3.30038689       0.0199378935     76.7109301       0.995606102     -1.11674522       0.995606102     -1.11674522       0.0199378935     76.7109301      
 3.33339076       0.0201239271     76.7926393       0.995594946     -1.12755772       0.995594946     -1.12755772       0.0201239273     76.7926395      
 3.36672467       0.0203118158     76.8733085       0.995583616     -1.13847456       0.995583616     -1.13847456       0.0203118159     76.8733086      
 3.40039192       0.0205015753     76.9529604       0.995572101     -1.14949674       0.995572101     -1.14949674       0.0205015754     76.9529606      
 3.43439584       0.0206932241     77.031588        0.995560404     -1.16062527       0.995560404     -1.16062527       0.0206932241     77.031588       
 3.4687398        0.0208867784     77.1092123       0.995548516     -1.17186116       0.995548516     -1.17186116       0.0208867785     77.1092124      
 3.50342719       0.0210822569     77.185829        0.995536438     -1.18320546       0.995536438     -1.18320546       0.0210822571     77.1858292      
 3.53846147       0.0212796781     77.2614367       0.995524169     -1.19465918       0.995524169     -1.19465918       0.0212796781     77.2614367      
 3.57384608       0.0214790585     77.336058        0.995511698     -1.20622338       0.995511698     -1.20622338       0.0214790586     77.3360581      
 3.60958454       0.0216804177     77.4096836       0.99549903      -1.21789913       0.99549903      -1.21789913       0.0216804177     77.4096836      
 3.64568039       0.0218837733     77.4823283       0.995486156     -1.22968748       0.995486156     -1.22968748       0.0218837733     77.4823284      
 3.68213719       0.0220891443     77.5539924       0.995473076     -1.24158952       0.995473076     -1.24158952       0.0220891444     77.5539924      
 3.71895856       0.0222965492     77.6246853       0.995459784     -1.25360633       0.995459784     -1.25360633       0.0222965493     77.6246854      
 3.75614815       0.0225060078     77.6944037       0.99544628      -1.26573901       0.99544628      -1.26573901       0.0225060078     77.6944037      
 3.79370963       0.0227175379     77.7631657       0.995432557     -1.27798867       0.995432557     -1.27798867       0.022717538      77.7631659      
 3.83164673       0.0229311598     77.8309671       0.995418613     -1.29035643       0.995418613     -1.29035643       0.02293116       77.8309672      
 3.86996319       0.0231468935     77.8978094       0.995404447     -1.30284341       0.995404447     -1.30284341       0.0231468934     77.8978093      
 3.90866282       0.023364757      77.9637123       0.99539005      -1.31545077       0.99539005      -1.31545077       0.023364757      77.9637123      
 3.94774945       0.0235847717     78.0286674       0.995375422     -1.32817964       0.995375422     -1.32817964       0.0235847717     78.0286673      
 3.98722695       0.0238069564     78.0926929       0.995360555     -1.34103119       0.995360555     -1.34103119       0.0238069565     78.092693       
 4.02709922       0.0240313326     78.1557798       0.995345451     -1.35400659       0.995345451     -1.35400659       0.0240313328     78.1557799      
 4.06737021       0.0242579206     78.2179368       0.995330104     -1.36710702       0.995330104     -1.36710702       0.0242579207     78.2179368      
 4.10804391       0.0244867404     78.2791744       0.995314508     -1.38033369       0.995314508     -1.38033369       0.0244867404     78.2791744      
 4.14912435       0.0247178134     78.3394916       0.995298661     -1.39368779       0.995298661     -1.39368779       0.0247178133     78.3394915      
 4.19061559       0.0249511599     78.3989013       0.995282556     -1.40717054       0.995282556     -1.40717054       0.0249511599     78.3989014      
 4.23252175       0.0251868017     78.4574017       0.995266191     -1.42078317       0.995266191     -1.42078317       0.0251868018     78.4574018      
 4.27484697       0.0254247602     78.5149987       0.995249562     -1.43452691       0.995249562     -1.43452691       0.0254247604     78.5149988      
 4.31759544       0.0256650573     78.5716956       0.995232665     -1.44840303       0.995232665     -1.44840303       0.0256650575     78.5716957      
 4.36077139       0.0259077153     78.6274924       0.995215497     -1.46241277       0.995215497     -1.46241277       0.0259077152     78.6274924      
 4.4043791        0.0261527547     78.6824074       0.995198048     -1.47655743       0.995198048     -1.47655743       0.0261527547     78.6824074      
 4.4484229        0.0264001986     78.7364377       0.995180317     -1.49083828       0.995180317     -1.49083828       0.0264001987     78.7364377      
 4.49290712       0.0266500697     78.7895867       0.995162299     -1.50525662       0.995162299     -1.50525662       0.0266500698     78.7895867      
 4.5378362        0.0269023904     78.8418613       0.995143989     -1.51981376       0.995143989     -1.51981376       0.0269023906     78.8418614      
 4.58321456       0.0271571842     78.8932602       0.995125385     -1.53451102       0.995125385     -1.53451102       0.0271571842     78.8932602      
 4.6290467        0.0274144735     78.9437934       0.995106478     -1.54934975       0.995106478     -1.54934975       0.0274144736     78.9437934      
 4.67533717       0.0276742819     78.9934647       0.995087265     -1.56433127       0.995087265     -1.56433127       0.0276742819     78.9934647      
 4.72209054       0.0279366328     79.0422786       0.99506774      -1.57945697       0.99506774      -1.57945697       0.0279366329     79.0422786      
 4.76931145       0.02820155       79.0902397       0.995047897     -1.59472821       0.995047897     -1.59472821       0.0282015502     79.0902398      
 4.81700456       0.028469058      79.1373473       0.995027735     -1.61014636       0.995027735     -1.61014636       0.0284690581     79.1373473      
 4.86517461       0.0287391804     79.1836109       0.995007244     -1.62571284       0.995007244     -1.62571284       0.0287391805     79.183611       
 4.91382635       0.0290119422     79.2290307       0.994986422     -1.64142905       0.994986422     -1.64142905       0.0290119422     79.2290308      
 4.96296462       0.0292873675     79.2736154       0.994965261     -1.65729642       0.994965261     -1.65729642       0.0292873675     79.2736155      
 5.01259426       0.0295654815     79.3173656       0.994943757     -1.67331638       0.994943757     -1.67331638       0.0295654816     79.3173657      
 5.06272021       0.0298463097     79.3602831       0.994921905     -1.68949038       0.994921905     -1.68949038       0.0298463096     79.3602831      
 5.11334741       0.0301298766     79.4023782       0.994899696     -1.7058199        0.994899696     -1.7058199        0.0301298767     79.4023782      
 5.16448088       0.0304162082     79.4436524       0.994877125     -1.72230639       0.994877125     -1.72230639       0.0304162084     79.4436524      
 5.21612569       0.0307053308     79.4841058       0.994854189     -1.73895136       0.994854189     -1.73895136       0.030705331      79.4841059      
 5.26828695       0.0309972703     79.5237435       0.99483088      -1.75575631       0.99483088      -1.75575631       0.0309972704     79.5237436      
 5.32096982       0.0312920529     79.5625695       0.994807193     -1.77272276       0.994807193     -1.77272276       0.031292053      79.5625695      
 5.37417952       0.0315897052     79.6005888       0.99478312      -1.78985223       0.99478312      -1.78985223       0.0315897051     79.6005888      
 5.42792131       0.0318902533     79.6378084       0.994758653     -1.80714629       0.994758653     -1.80714629       0.0318902535     79.6378084      
 5.48220052       0.032193726      79.6742205       0.994733792     -1.82460647       0.994733792     -1.82460647       0.032193726      79.6742205      
 5.53702253       0.032500149      79.7098398       0.994708524     -1.84223438       0.994708524     -1.84223438       0.032500149      79.7098398      
 5.59239275       0.0328095505     79.744666        0.994682844     -1.86003158       0.994682844     -1.86003158       0.0328095505     79.744666       
 5.64831668       0.0331219583     79.7787011       0.994656746     -1.87799969       0.994656746     -1.87799969       0.0331219583     79.7787011      
 5.70479985       0.0334374003     79.8119505       0.994630222     -1.89614032       0.994630222     -1.89614032       0.0334374003     79.8119505      
 5.76184785       0.0337559051     79.8444155       0.994603267     -1.91445511       0.994603267     -1.91445511       0.0337559052     79.8444155      
 5.81946633       0.0340775013     79.8760992       0.994575873     -1.9329457        0.994575873     -1.9329457        0.0340775013     79.8760992      
 5.87766099       0.0344022174     79.9070074       0.994548031     -1.95161376       0.994548031     -1.95161376       0.0344022175     79.9070074      
 5.9364376        0.0347300833     79.9371381       0.994519736     -1.97046097       0.994519736     -1.97046097       0.0347300832     79.9371381      
 5.99580198       0.0350611275     79.9665          0.994490979     -1.98948901       0.994490979     -1.98948901       0.0350611274     79.9665         
 6.05576          0.0353953798     79.9950953       0.994461751     -2.00869961       0.994461751     -2.00869961       0.0353953799     79.9950953      
 6.1163176        0.0357328705     80.0229238       0.994432048     -2.02809448       0.994432048     -2.02809448       0.0357328707     80.0229238      
 6.17748077       0.0360736296     80.0499905       0.994401859     -2.04767537       0.994401859     -2.04767537       0.0360736299     80.0499906      
 6.23925558       0.036417688      80.0762954       0.994371178     -2.06744402       0.994371178     -2.06744402       0.0364176881     80.0762955      
 6.30164813       0.0367650763     80.1018423       0.994339997     -2.08740221       0.994339997     -2.08740221       0.0367650762     80.1018422      
 6.36466462       0.0371158245     80.1266394       0.994308303     -2.10755174       0.994308303     -2.10755174       0.0371158247     80.1266394      
 6.42831126       0.0374699653     80.1506824       0.994276093     -2.12789439       0.994276093     -2.12789439       0.0374699653     80.1506824      
 6.49259437       0.0378275295     80.173977        0.994243357     -2.148432         0.994243357     -2.148432         0.0378275296     80.173977       
 6.55752032       0.0381885492     80.1965261       0.994210084     -2.16916641       0.994210084     -2.16916641       0.0381885493     80.1965262      
 6.62309552       0.0385530568     80.2183293       0.994176268     -2.19009945       0.994176268     -2.19009945       0.0385530568     80.2183293      
 6.68932648       0.0389210843     80.2393925       0.994141899     -2.21123301       0.994141899     -2.21123301       0.0389210844     80.2393925      